 Gaussian 16, Revision C.01,
 Gaussian 16:  ES64L-G16RevC.01  3-Jul-2019

 --------------------------
 #PBEPBE/6-31+g** scf=tight
 --------------------------

 -----
 fubar
 -----
 Symbolic Z-matrix:
 Charge =  3 Multiplicity = 1

                         Standard orientation:
 ---------------------------------------------------------------------
 Center     Atomic      Atomic             Coordinates (Angstroms)
 Number     Number       Type             X           Y           Z
 ---------------------------------------------------------------------
      1          5           0        0.000000    0.000000    0.000000
 ---------------------------------------------------------------------

 SCF Done:  E(RPBE-PBE) =  -21.9790211221     A.U. after    4 cycles

 The electronic state is 1-A1G.
 Alpha  occ. eigenvalues --   -8.50493
 Alpha virt. eigenvalues --   -1.53342  -1.33243  -1.33243  -1.33243  -0.57913
 Alpha virt. eigenvalues --   -0.54635  -0.54635  -0.54635  -0.29505  -0.29505
 Alpha virt. eigenvalues --   -0.29505  -0.22812   0.02132   0.02132   0.02132

 Mulliken charges:
               1
     1  B    3.000000
 Sum of Mulliken charges =   3.00000

 Dipole moment (field-independent basis, Debye):
    X=              0.0000    Y=              0.0000    Z=              0.0000  Tot=              0.0000
 Quadrupole moment (field-independent basis, Debye-Ang):
   XX=             -0.1297   YY=             -0.1297   ZZ=             -0.1297
   XY=              0.0000   XZ=             -0.0000   YZ=              0.0000

 Normal termination of Gaussian 16 at Tue Apr 20 20:16:08 2021.
