 Gaussian 09, Revision D.01,
 Gaussian 09:  ES64L-G09RevD.01 24-Apr-2013

 --------------------------
 #PBEPBE/6-31+g** scf=tight
 --------------------------

 -----
 fubar
 -----
 Symbolic Z-matrix:
 Charge =  0 Multiplicity = 3

                         Standard orientation:
 ---------------------------------------------------------------------
 Center     Atomic      Atomic             Coordinates (Angstroms)
 Number     Number       Type             X           Y           Z
 ---------------------------------------------------------------------
      1          6           0        0.000000    0.000000    0.000000
 ---------------------------------------------------------------------

 SCF Done:  E(UPBE-PBE) =  -37.7885057276     A.U. after    7 cycles

 Unable to determine electronic state:  an orbital has unidentified symmetry.
 Alpha  occ. eigenvalues --  -10.04426  -0.53130  -0.22254  -0.22254
 Alpha virt. eigenvalues --   -0.20488   0.01874   0.05602   0.05602   0.06238
 Alpha virt. eigenvalues --    0.58224   0.58224   0.59797   0.73958   1.54583
 Alpha virt. eigenvalues --    1.54584   1.55002   1.55002   1.56962   3.78198
  Beta  occ. eigenvalues --  -10.01792  -0.43732
  Beta virt. eigenvalues --   -0.16824  -0.11193  -0.11193   0.05121   0.08307
  Beta virt. eigenvalues --    0.09678   0.09678   0.62389   0.66244   0.66244
  Beta virt. eigenvalues --    0.80608   1.62194   1.64040   1.64040   1.69290

 Mulliken charges and spin densities:
               1          2
     1  C   -0.000000   2.000000
 Sum of Mulliken charges =  -0.00000   2.00000

 Dipole moment (field-independent basis, Debye):
    X=              0.0000    Y=              0.0000    Z=              0.0000  Tot=              0.0000
 Quadrupole moment (field-independent basis, Debye-Ang):
   XX=             -7.1172   YY=             -5.0100   ZZ=             -7.1172
   XY=             -0.0000   XZ=              0.0000   YZ=              0.0000

 Normal termination of Gaussian 09 at Wed Sep 30 15:59:10 2020.
