 Gaussian 09, Revision D.01,
 Gaussian 09:  ES64L-G09RevD.01 24-Apr-2013

 --------------------------
 #PBEPBE/6-31+g** scf=tight
 --------------------------

 -----
 fubar
 -----
 Symbolic Z-matrix:
 Charge =  1 Multiplicity = 2

                         Standard orientation:
 ---------------------------------------------------------------------
 Center     Atomic      Atomic             Coordinates (Angstroms)
 Number     Number       Type             X           Y           Z
 ---------------------------------------------------------------------
      1          6           0        0.000000    0.000000    0.000000
 ---------------------------------------------------------------------

 SCF Done:  E(UPBE-PBE) =  -37.3646770197     A.U. after    8 cycles

 Unable to determine electronic state:  an orbital has unidentified symmetry.
 Alpha  occ. eigenvalues --  -10.60905  -0.96375  -0.65977
 Alpha virt. eigenvalues --   -0.63115  -0.63115  -0.18630  -0.13166  -0.12431
 Alpha virt. eigenvalues --   -0.12431   0.24986   0.26441   0.26441   0.41691
 Alpha virt. eigenvalues --    1.09664   1.09664   1.11022   1.12434   1.12437

  Beta  occ. eigenvalues --  -10.59271  -0.90966
  Beta virt. eigenvalues --   -0.61116  -0.61116  -0.54017  -0.16970  -0.11551
  Beta virt. eigenvalues --   -0.11551  -0.10419   0.27611   0.27611   0.31092
  Beta virt. eigenvalues --    0.44849   1.13025   1.13025   1.19062   1.19062

 Mulliken charges and spin densities:
               1          2
     1  C    1.000000   1.000000
 Sum of Mulliken charges =   1.00000   1.00000

 Dipole moment (field-independent basis, Debye):
    X=              0.0000    Y=              0.0000    Z=              0.0000  Tot=              0.0000
 Quadrupole moment (field-independent basis, Debye-Ang):
   XX=             -3.1696   YY=             -3.1696   ZZ=             -4.5930
   XY=             -0.0000   XZ=             -0.0000   YZ=              0.0000

 Normal termination of Gaussian 09 at Wed Sep 30 15:59:08 2020.
