 Gaussian 16, Revision C.01,
 Gaussian 16:  ES64L-G16RevC.01  3-Jul-2019

 --------------------------
 #PBEPBE/6-31+g** scf=tight
 --------------------------

 -----
 fubar
 -----
 Symbolic Z-matrix:
 Charge =  2 Multiplicity = 3

                         Standard orientation:
 ---------------------------------------------------------------------
 Center     Atomic      Atomic             Coordinates (Angstroms)
 Number     Number       Type             X           Y           Z
 ---------------------------------------------------------------------
      1          8           0        0.000000    0.000000    0.000000
 ---------------------------------------------------------------------

 SCF Done:  E(UPBE-PBE) =  -73.1656094829     A.U. after   10 cycles

 Unable to determine electronic state:  partially filled degenerate orbitals.
 Alpha  occ. eigenvalues --  -20.53493  -2.20004  -1.65871  -1.65871
 Alpha virt. eigenvalues --   -1.62944  -0.53684  -0.42672  -0.42672  -0.42138
 Alpha virt. eigenvalues --    0.12326   0.12326   0.13140   0.28154   0.51333
 Alpha virt. eigenvalues --    0.51333   0.51439   0.51439   0.52704   2.39569
  Beta  occ. eigenvalues --  -20.47587  -2.03905
  Beta virt. eigenvalues --   -1.55355  -1.44990  -1.44990  -0.50088  -0.40292
  Beta virt. eigenvalues --   -0.38586  -0.38586   0.15851   0.19600   0.19600
  Beta virt. eigenvalues --    0.33752   0.59276   0.61046   0.61046   0.66367

 Mulliken charges and spin densities:
               1          2
     1  O    2.000000   2.000000
 Sum of Mulliken charges =   2.00000   2.00000

 Dipole moment (field-independent basis, Debye):
    X=              0.0000    Y=              0.0000    Z=              0.0000  Tot=              0.0000
 Quadrupole moment (field-independent basis, Debye-Ang):
   XX=             -2.5160   YY=             -1.8944   ZZ=             -2.5160
   XY=             -0.0000   XZ=              0.0000   YZ=              0.0000

 Normal termination of Gaussian 16 at Tue Aug  3 16:34:30 2021.
