 Gaussian 09, Revision D.01,
 Gaussian 09:  ES64L-G09RevD.01 24-Apr-2013

 --------------------------
 #PBEPBE/6-31+g** scf=tight
 --------------------------

 -----
 fubar
 -----
 Symbolic Z-matrix:
 Charge = -2 Multiplicity = 2

                         Standard orientation:
 ---------------------------------------------------------------------
 Center     Atomic      Atomic             Coordinates (Angstroms)
 Number     Number       Type             X           Y           Z
 ---------------------------------------------------------------------
      1          1           0        0.000000    0.000000    0.000000
 ---------------------------------------------------------------------

 SCF Done:  E(UPBE-PBE) =  0.966089525558     A.U. after    7 cycles

 The electronic state is 2-A1G.
 Alpha  occ. eigenvalues --    0.68830   1.69442
 Alpha virt. eigenvalues --    3.07041   3.07041   3.07041
  Beta  occ. eigenvalues --    0.72992
  Beta virt. eigenvalues --    1.99802   3.20589   3.20589   3.20589

 Mulliken charges and spin densities:
               1          2
     1  H   -2.000000   1.000000
 Sum of Mulliken charges =  -2.00000   1.00000

 Dipole moment (field-independent basis, Debye):
    X=              0.0000    Y=              0.0000    Z=              0.0000  Tot=              0.0000
 Quadrupole moment (field-independent basis, Debye-Ang):
   XX=             -5.3488   YY=             -5.3488   ZZ=             -5.3488
   XY=              0.0000   XZ=              0.0000   YZ=              0.0000

 Normal termination of Gaussian 09 at Wed Sep 30 15:59:00 2020.
