 Gaussian 16, Revision C.01,
 Gaussian 16:  ES64L-G16RevC.01  3-Jul-2019

 --------------------------
 #PBEPBE/6-31+g** scf=tight
 --------------------------

 -----
 fubar
 -----
 Symbolic Z-matrix:
 Charge = -2 Multiplicity = 4

                         Standard orientation:
 ---------------------------------------------------------------------
 Center     Atomic      Atomic             Coordinates (Angstroms)
 Number     Number       Type             X           Y           Z
 ---------------------------------------------------------------------
      1          5           0        0.000000    0.000000    0.000000
 ---------------------------------------------------------------------

 SCF Done:  E(UPBE-PBE) =  -24.4747441954     A.U. after   10 cycles

 The electronic state is 4-A1G.
 Alpha  occ. eigenvalues --   -6.22211   0.03248   0.21490   0.21490   0.21490
 Alpha virt. eigenvalues --    0.26841   0.30399   0.30399   0.30399   0.80783
 Alpha virt. eigenvalues --    0.80783   0.80783   0.91797   1.57296   1.57296
 Alpha virt. eigenvalues --    1.57296   1.57296   1.57296   3.61079
  Beta  occ. eigenvalues --   -6.20990   0.08861
  Beta virt. eigenvalues --    0.25681   0.25681   0.25681   0.30440   0.35234
  Beta virt. eigenvalues --    0.35234   0.35234   0.85238   0.85238   0.85238
  Beta virt. eigenvalues --    0.96778   1.63563   1.63563   1.63563   1.63563

 Mulliken charges and spin densities:
               1          2
     1  B   -2.000000   3.000000
 Sum of Mulliken charges =  -2.00000   3.00000

 Dipole moment (field-independent basis, Debye):
    X=              0.0000    Y=              0.0000    Z=              0.0000  Tot=              0.0000
 Quadrupole moment (field-independent basis, Debye-Ang):
   XX=            -38.7104   YY=            -38.7104   ZZ=            -38.7104
   XY=             -0.0000   XZ=              0.0000   YZ=             -0.0000

 Normal termination of Gaussian 16 at Tue Apr 20 20:16:18 2021.
