 Gaussian 09, Revision D.01,
 Gaussian 09:  ES64L-G09RevD.01 24-Apr-2013

 --------------------------
 #PBEPBE/6-31+g** scf=tight
 --------------------------

 -----
 fubar
 -----
 Symbolic Z-matrix:
 Charge = -1 Multiplicity = 4

                         Standard orientation:
 ---------------------------------------------------------------------
 Center     Atomic      Atomic             Coordinates (Angstroms)
 Number     Number       Type             X           Y           Z
 ---------------------------------------------------------------------
      1          6           0        0.000000    0.000000    0.000000
 ---------------------------------------------------------------------

 SCF Done:  E(UPBE-PBE) =  -37.8460598446     A.U. after    8 cycles

 The electronic state is 4-A1G.
 Alpha  occ. eigenvalues --   -9.69437  -0.22427   0.07380   0.07380   0.07380
 Alpha virt. eigenvalues --    0.19679   0.22843   0.22843   0.22843   0.84882
 Alpha virt. eigenvalues --    0.84882   0.84882   0.99748   1.87036   1.87036
 Alpha virt. eigenvalues --    1.87036   1.87036   1.87036   4.09926
  Beta  occ. eigenvalues --   -9.66400  -0.10890
  Beta virt. eigenvalues --    0.16235   0.16235   0.16235   0.23995   0.28829
  Beta virt. eigenvalues --    0.28829   0.28829   0.93439   0.93439   0.93439
  Beta virt. eigenvalues --    1.08741   1.99948   1.99948   1.99948   1.99948

 Mulliken charges and spin densities:
               1          2
     1  C   -1.000000   3.000000
 Sum of Mulliken charges =  -1.00000   3.00000

 Dipole moment (field-independent basis, Debye):
    X=              0.0000    Y=              0.0000    Z=              0.0000  Tot=              0.0000
 Quadrupole moment (field-independent basis, Debye-Ang):
   XX=            -13.3784   YY=            -13.3784   ZZ=            -13.3784
   XY=             -0.0000   XZ=              0.0000   YZ=             -0.0000

 Normal termination of Gaussian 09 at Wed Sep 30 15:59:13 2020.
