 Gaussian 16, Revision C.01,
 Gaussian 16:  ES64L-G16RevC.01  3-Jul-2019

 --------------------------
 #PBEPBE/6-31+g** scf=tight
 --------------------------

 -----
 fubar
 -----
 Symbolic Z-matrix:
 Charge = -2 Multiplicity = 1

                         Standard orientation:
 ---------------------------------------------------------------------
 Center     Atomic      Atomic             Coordinates (Angstroms)
 Number     Number       Type             X           Y           Z
 ---------------------------------------------------------------------
      1          8           0        0.000000    0.000000    0.000000
 ---------------------------------------------------------------------

 SCF Done:  E(RPBE-PBE) =  -74.7872663910     A.U. after   10 cycles

 The electronic state is 1-A1G.
 Alpha  occ. eigenvalues --  -18.15041  -0.13829   0.37527   0.37527   0.37527
 Alpha virt. eigenvalues --    0.52851   0.58916   0.58916   0.58916   1.66236
 Alpha virt. eigenvalues --    1.66236   1.66236   1.71599   2.38082   2.38082
 Alpha virt. eigenvalues --    2.38082   2.38082   2.38082   4.17565

 Mulliken charges:
               1
     1  O   -2.000000
 Sum of Mulliken charges =  -2.00000

 Dipole moment (field-independent basis, Debye):
    X=              0.0000    Y=              0.0000    Z=              0.0000  Tot=              0.0000
 Quadrupole moment (field-independent basis, Debye-Ang):
   XX=            -15.1740   YY=            -15.1740   ZZ=            -15.1740
   XY=             -0.0000   XZ=              0.0000   YZ=             -0.0000

 Normal termination of Gaussian 16 at Tue Aug  3 16:34:38 2021.
