 Gaussian 09, Revision D.01,
 Gaussian 09:  ES64L-G09RevD.01 24-Apr-2013

 --------------------------
 #PBEPBE/6-31+g** scf=tight
 --------------------------

 -----
 fubar
 -----
 Symbolic Z-matrix:
 Charge =  3 Multiplicity = 2

                         Standard orientation:
 ---------------------------------------------------------------------
 Center     Atomic      Atomic             Coordinates (Angstroms)
 Number     Number       Type             X           Y           Z
 ---------------------------------------------------------------------
      1          6           0        0.000000    0.000000    0.000000
 ---------------------------------------------------------------------

 SCF Done:  E(UPBE-PBE) =  -34.7206393479     A.U. after    7 cycles

 The electronic state is 2-A1G.
 Alpha  occ. eigenvalues --  -12.21531  -2.11653
 Alpha virt. eigenvalues --   -1.81051  -1.81051  -1.81051  -0.73215  -0.67992
 Alpha virt. eigenvalues --   -0.67992  -0.67992  -0.33140  -0.33140  -0.33140
 Alpha virt. eigenvalues --   -0.26093  -0.00032  -0.00032  -0.00032  -0.00032

  Beta  occ. eigenvalues --  -12.17667
  Beta virt. eigenvalues --   -1.87151  -1.58374  -1.58374  -1.58374  -0.64710
  Beta virt. eigenvalues --   -0.59031  -0.59031  -0.59031  -0.28570  -0.28570
  Beta virt. eigenvalues --   -0.28570  -0.17505   0.28829   0.28829   0.28829

 Mulliken charges and spin densities:
               1          2
     1  C    3.000000   1.000000
 Sum of Mulliken charges =   3.00000   1.00000

 Dipole moment (field-independent basis, Debye):
    X=              0.0000    Y=              0.0000    Z=              0.0000  Tot=              0.0000
 Quadrupole moment (field-independent basis, Debye-Ang):
   XX=             -0.9558   YY=             -0.9558   ZZ=             -0.9558
   XY=              0.0000   XZ=             -0.0000   YZ=              0.0000

 Normal termination of Gaussian 09 at Wed Sep 30 15:59:03 2020.
