 Gaussian 16, Revision C.01,
 Gaussian 16:  ES64L-G16RevC.01  3-Jul-2019

 --------------------------
 #PBEPBE/6-31+g** scf=tight
 --------------------------

 -----
 fubar
 -----
 Symbolic Z-matrix:
 Charge =  3 Multiplicity = 2

                         Standard orientation:
 ---------------------------------------------------------------------
 Center     Atomic      Atomic             Coordinates (Angstroms)
 Number     Number       Type             X           Y           Z
 ---------------------------------------------------------------------
      1          8           0        0.000000    0.000000    0.000000
 ---------------------------------------------------------------------

 SCF Done:  E(UPBE-PBE) =  -71.1302340175     A.U. after    9 cycles

 Unable to determine electronic state:  partially filled degenerate orbitals.
 Alpha  occ. eigenvalues --  -21.61973  -2.95151  -2.45048
 Alpha virt. eigenvalues --   -2.40632  -2.40632  -0.89184  -0.78462  -0.77654
 Alpha virt. eigenvalues --   -0.77654  -0.26630  -0.25959  -0.25959  -0.12311
 Alpha virt. eigenvalues --   -0.09814  -0.09814  -0.08691  -0.08272  -0.08272

  Beta  occ. eigenvalues --  -21.58776  -2.86307
  Beta virt. eigenvalues --   -2.36742  -2.36742  -2.25415  -0.87096  -0.76614
  Beta virt. eigenvalues --   -0.76614  -0.74176  -0.25086  -0.25086  -0.22666
  Beta virt. eigenvalues --   -0.09823  -0.06705  -0.06705  -0.01359  -0.01359

 Mulliken charges and spin densities:
               1          2
     1  O    3.000000   1.000000
 Sum of Mulliken charges =   3.00000   1.00000

 Dipole moment (field-independent basis, Debye):
    X=              0.0000    Y=              0.0000    Z=              0.0000  Tot=              0.0000
 Quadrupole moment (field-independent basis, Debye-Ang):
   XX=             -1.3752   YY=             -1.3752   ZZ=             -1.9034
   XY=             -0.0000   XZ=             -0.0000   YZ=              0.0000

 Normal termination of Gaussian 16 at Tue Aug  3 16:34:27 2021.
