 Gaussian 16, Revision C.01,
 Gaussian 16:  ES64L-G16RevC.01  3-Jul-2019

 --------------------------
 #PBEPBE/6-31+g** scf=tight
 --------------------------

 -----
 fubar
 -----
 Symbolic Z-matrix:
 Charge =  2 Multiplicity = 2

                         Standard orientation:
 ---------------------------------------------------------------------
 Center     Atomic      Atomic             Coordinates (Angstroms)
 Number     Number       Type             X           Y           Z
 ---------------------------------------------------------------------
      1          5           0        0.000000    0.000000    0.000000
 ---------------------------------------------------------------------

 SCF Done:  E(UPBE-PBE) =  -23.3838847523     A.U. after    7 cycles

 The electronic state is 2-A1G.
 Alpha  occ. eigenvalues --   -7.77471  -1.19942
 Alpha virt. eigenvalues --   -0.97342  -0.97342  -0.97342  -0.38133  -0.33386
 Alpha virt. eigenvalues --   -0.33386  -0.33386  -0.11364  -0.11364  -0.11364
 Alpha virt. eigenvalues --   -0.01611   0.30537   0.30537   0.30537   0.30537

  Beta  occ. eigenvalues --   -7.74634
  Beta virt. eigenvalues --   -1.00109  -0.78891  -0.78891  -0.78891  -0.32188
  Beta virt. eigenvalues --   -0.27603  -0.27603  -0.27603  -0.04154  -0.04154
  Beta virt. eigenvalues --   -0.04154   0.08559   0.53740   0.53740   0.53740

 Mulliken charges and spin densities:
               1          2
     1  B    2.000000   1.000000
 Sum of Mulliken charges =   2.00000   1.00000

 Dipole moment (field-independent basis, Debye):
    X=              0.0000    Y=              0.0000    Z=              0.0000  Tot=              0.0000
 Quadrupole moment (field-independent basis, Debye-Ang):
   XX=             -1.5405   YY=             -1.5405   ZZ=             -1.5405
   XY=              0.0000   XZ=             -0.0000   YZ=              0.0000

 Normal termination of Gaussian 16 at Tue Apr 20 20:16:10 2021.
