 Gaussian 09, Revision D.01,
 Gaussian 09:  ES64L-G09RevD.01 24-Apr-2013

 --------------------------
 #PBEPBE/6-31+g** scf=tight
 --------------------------

 -----
 fubar
 -----
 Symbolic Z-matrix:
 Charge = -2 Multiplicity = 3

                         Standard orientation:
 ---------------------------------------------------------------------
 Center     Atomic      Atomic             Coordinates (Angstroms)
 Number     Number       Type             X           Y           Z
 ---------------------------------------------------------------------
      1          6           0        0.000000    0.000000    0.000000
 ---------------------------------------------------------------------

 SCF Done:  E(UPBE-PBE) =  -37.6234165666     A.U. after   12 cycles

 Unable to determine electronic state:  partially filled degenerate orbitals.
 Alpha  occ. eigenvalues --   -9.52849  -0.03084   0.24869   0.24869   0.27162
 Alpha virt. eigenvalues --    0.34381   0.36975   0.36975   0.38483   1.02456
 Alpha virt. eigenvalues --    1.02456   1.04816   1.18311   2.04966   2.04966
 Alpha virt. eigenvalues --    2.07296   2.07296   2.08109   4.28678
  Beta  occ. eigenvalues --   -9.50783   0.04551   0.29110
  Beta virt. eigenvalues --    0.30673   0.30673   0.36324   0.40358   0.42165
  Beta virt. eigenvalues --    0.42165   1.07640   1.09394   1.09394   1.24027
  Beta virt. eigenvalues --    2.14293   2.14293   2.14419   2.16240   2.16240

 Mulliken charges and spin densities:
               1          2
     1  C   -2.000000   2.000000
 Sum of Mulliken charges =  -2.00000   2.00000

 Dipole moment (field-independent basis, Debye):
    X=              0.0000    Y=              0.0000    Z=              0.0000  Tot=              0.0000
 Quadrupole moment (field-independent basis, Debye-Ang):
   XX=            -23.8491   YY=            -23.8491   ZZ=            -35.5041
   XY=              0.0000   XZ=             -0.0000   YZ=              0.0000

 Normal termination of Gaussian 09 at Wed Sep 30 15:59:16 2020.
