 Gaussian 09, Revision D.01,
 Gaussian 09:  ES64L-G09RevD.01 24-Apr-2013

 --------------------------
 #PBEPBE/6-31+g** scf=tight
 --------------------------

 -----
 fubar
 -----
 Symbolic Z-matrix:
 Charge =  2 Multiplicity = 1

                         Standard orientation:
 ---------------------------------------------------------------------
 Center     Atomic      Atomic             Coordinates (Angstroms)
 Number     Number       Type             X           Y           Z
 ---------------------------------------------------------------------
      1          6           0        0.000000    0.000000    0.000000
 ---------------------------------------------------------------------

 SCF Done:  E(RPBE-PBE) =  -36.4513288989     A.U. after    7 cycles

 The electronic state is 1-A1G.
 Alpha  occ. eigenvalues --  -11.35001  -1.48405
 Alpha virt. eigenvalues --   -1.16603  -1.16603  -1.16603  -0.42619  -0.35922
 Alpha virt. eigenvalues --   -0.35922  -0.35922  -0.06356  -0.06356  -0.06356
 Alpha virt. eigenvalues --    0.07515   0.59786   0.59786   0.59786   0.59786

 Mulliken charges:
               1
     1  C    2.000000
 Sum of Mulliken charges =   2.00000

 Dipole moment (field-independent basis, Debye):
    X=              0.0000    Y=              0.0000    Z=              0.0000  Tot=              0.0000
 Quadrupole moment (field-independent basis, Debye-Ang):
   XX=             -2.0892   YY=             -2.0892   ZZ=             -2.0892
   XY=              0.0000   XZ=             -0.0000   YZ=              0.0000

 Normal termination of Gaussian 09 at Wed Sep 30 15:59:05 2020.
