 Gaussian 16, Revision C.01,
 Gaussian 16:  ES64L-G16RevC.01  3-Jul-2019

 --------------------------
 #PBEPBE/6-31+g** scf=tight
 --------------------------

 -----
 fubar
 -----
 Symbolic Z-matrix:
 Charge =  0 Multiplicity = 2

                         Standard orientation:
 ---------------------------------------------------------------------
 Center     Atomic      Atomic             Coordinates (Angstroms)
 Number     Number       Type             X           Y           Z
 ---------------------------------------------------------------------
      1          5           0        0.000000    0.000000    0.000000
 ---------------------------------------------------------------------

 SCF Done:  E(UPBE-PBE) =  -24.6063808864     A.U. after    7 cycles

 Unable to determine electronic state:  an orbital has unidentified symmetry.
 Alpha  occ. eigenvalues --   -6.63309  -0.35466  -0.15049
 Alpha virt. eigenvalues --   -0.13179  -0.13179   0.01358   0.03774   0.04670
 Alpha virt. eigenvalues --    0.04670   0.44276   0.46061   0.46061   0.56866
 Alpha virt. eigenvalues --    1.16258   1.16258   1.17277   1.18555   1.18555

  Beta  occ. eigenvalues --   -6.62449  -0.31857
  Beta virt. eigenvalues --   -0.11937  -0.11937  -0.07567   0.03039   0.05703
  Beta virt. eigenvalues --    0.05703   0.07008   0.46939   0.46939   0.50101
  Beta virt. eigenvalues --    0.59696   1.18483   1.18483   1.23119   1.23119

 Mulliken charges and spin densities:
               1          2
     1  B    0.000000   1.000000
 Sum of Mulliken charges =   0.00000   1.00000

 Dipole moment (field-independent basis, Debye):
    X=              0.0000    Y=              0.0000    Z=              0.0000  Tot=              0.0000
 Quadrupole moment (field-independent basis, Debye-Ang):
   XX=             -6.0922   YY=             -6.0922   ZZ=             -9.6078
   XY=              0.0000   XZ=             -0.0000   YZ=              0.0000

 Normal termination of Gaussian 16 at Tue Apr 20 20:16:14 2021.
