 Gaussian 16, Revision C.01,
 Gaussian 16:  ES64L-G16RevC.01  3-Jul-2019

 --------------------------
 #PBEPBE/6-31+g** scf=tight
 --------------------------

 -----
 fubar
 -----
 Symbolic Z-matrix:
 Charge = -1 Multiplicity = 3

                         Standard orientation:
 ---------------------------------------------------------------------
 Center     Atomic      Atomic             Coordinates (Angstroms)
 Number     Number       Type             X           Y           Z
 ---------------------------------------------------------------------
      1          5           0        0.000000    0.000000    0.000000
 ---------------------------------------------------------------------

 SCF Done:  E(UPBE-PBE) =  -24.6265333341     A.U. after    8 cycles

 Unable to determine electronic state:  an orbital has unidentified symmetry.
 Alpha  occ. eigenvalues --   -6.36404  -0.11768   0.07610   0.07610
 Alpha virt. eigenvalues --    0.08772   0.15556   0.18099   0.18099   0.19034
 Alpha virt. eigenvalues --    0.65912   0.65912   0.67407   0.77326   1.41700
 Alpha virt. eigenvalues --    1.41700   1.42299   1.42299   1.43579   3.46361
  Beta  occ. eigenvalues --   -6.35242  -0.06362
  Beta virt. eigenvalues --    0.10695   0.12947   0.12947   0.18331   0.20872
  Beta virt. eigenvalues --    0.22713   0.22713   0.68898   0.71446   0.71446
  Beta virt. eigenvalues --    0.81976   1.46185   1.47348   1.47348   1.50614

 Mulliken charges and spin densities:
               1          2
     1  B   -1.000000   2.000000
 Sum of Mulliken charges =  -1.00000   2.00000

 Dipole moment (field-independent basis, Debye):
    X=              0.0000    Y=              0.0000    Z=              0.0000  Tot=              0.0000
 Quadrupole moment (field-independent basis, Debye-Ang):
   XX=            -13.1863   YY=            -21.2514   ZZ=            -21.2514
   XY=              0.0000   XZ=             -0.0000   YZ=             -0.0000

 Normal termination of Gaussian 16 at Tue Apr 20 20:16:16 2021.
