 Gaussian 16, Revision C.01,
 Gaussian 16:  ES64L-G16RevC.01  3-Jul-2019

 --------------------------
 #PBEPBE/6-31+g** scf=tight
 --------------------------

 -----
 fubar
 -----
 Symbolic Z-matrix:
 Charge =  1 Multiplicity = 4

                         Standard orientation:
 ---------------------------------------------------------------------
 Center     Atomic      Atomic             Coordinates (Angstroms)
 Number     Number       Type             X           Y           Z
 ---------------------------------------------------------------------
      1          8           0        0.000000    0.000000    0.000000
 ---------------------------------------------------------------------

 SCF Done:  E(UPBE-PBE) =  -74.4652496300     A.U. after    8 cycles

 The electronic state is 4-A1G.
 Alpha  occ. eigenvalues --  -19.62100  -1.52919  -0.97083  -0.97083  -0.97083
 Alpha virt. eigenvalues --   -0.22278  -0.12911  -0.12911  -0.12911   0.55719
 Alpha virt. eigenvalues --    0.55719   0.55719   0.68965   1.08333   1.08333
 Alpha virt. eigenvalues --    1.08333   1.08333   1.08333   2.94437
  Beta  occ. eigenvalues --  -19.54315  -1.31367
  Beta virt. eigenvalues --   -0.75895  -0.75895  -0.75895  -0.17413  -0.08484
  Beta virt. eigenvalues --   -0.08484  -0.08484   0.66406   0.66406   0.66406
  Beta virt. eigenvalues --    0.78108   1.24480   1.24480   1.24480   1.24480

 Mulliken charges and spin densities:
               1          2
     1  O    1.000000   3.000000
 Sum of Mulliken charges =   1.00000   3.00000

 Dipole moment (field-independent basis, Debye):
    X=              0.0000    Y=              0.0000    Z=              0.0000  Tot=              0.0000
 Quadrupole moment (field-independent basis, Debye-Ang):
   XX=             -3.3873   YY=             -3.3873   ZZ=             -3.3873
   XY=             -0.0000   XZ=              0.0000   YZ=             -0.0000

 Normal termination of Gaussian 16 at Tue Aug  3 16:34:32 2021.
