 Gaussian 16, Revision C.01,
 Gaussian 16:  ES64L-G16RevC.01  3-Jul-2019

 --------------------------
 #PBEPBE/6-31+g** scf=tight
 --------------------------

 -----
 fubar
 -----
 Symbolic Z-matrix:
 Charge =  0 Multiplicity = 3

                         Standard orientation:
 ---------------------------------------------------------------------
 Center     Atomic      Atomic             Coordinates (Angstroms)
 Number     Number       Type             X           Y           Z
 ---------------------------------------------------------------------
      1          8           0        0.000000    0.000000    0.000000
 ---------------------------------------------------------------------

 SCF Done:  E(UPBE-PBE) =  -74.9817170152     A.U. after    9 cycles

 Unable to determine electronic state:  an orbital has unidentified symmetry.
 Alpha  occ. eigenvalues --  -18.93429  -0.92685  -0.40069  -0.40069  -0.32425
 Alpha virt. eigenvalues --    0.06039   0.12593   0.12593   0.13822   0.97869
 Alpha virt. eigenvalues --    0.97869   1.02369   1.08741   1.58764   1.58764
 Alpha virt. eigenvalues --    1.63676   1.63676   1.65435   3.45775
  Beta  occ. eigenvalues --  -18.88765  -0.79510  -0.27720
  Beta virt. eigenvalues --   -0.24068  -0.24068   0.08627   0.14605   0.16252
  Beta virt. eigenvalues --    0.16252   1.05256   1.08257   1.08257   1.15007
  Beta virt. eigenvalues --    1.70992   1.70992   1.72190   1.73647   1.73647

 Mulliken charges and spin densities:
               1          2
     1  O    0.000000   2.000000
 Sum of Mulliken charges =   0.00000   2.00000

 Dipole moment (field-independent basis, Debye):
    X=              0.0000    Y=              0.0000    Z=              0.0000  Tot=              0.0000
 Quadrupole moment (field-independent basis, Debye-Ang):
   XX=             -4.8055   YY=             -4.8055   ZZ=             -6.1539
   XY=              0.0000   XZ=             -0.0000   YZ=              0.0000

 Normal termination of Gaussian 16 at Tue Aug  3 16:34:34 2021.
