 Gaussian 09, Revision D.01,
 Gaussian 09:  ES64L-G09RevD.01 24-Apr-2013

 --------------------------
 #PBEPBE/6-31+g** scf=tight
 --------------------------

 -----
 fubar
 -----
 Symbolic Z-matrix:
 Charge =  0 Multiplicity = 2

                         Standard orientation:
 ---------------------------------------------------------------------
 Center     Atomic      Atomic             Coordinates (Angstroms)
 Number     Number       Type             X           Y           Z
 ---------------------------------------------------------------------
      1          1           0        0.000000    0.000000    0.000000
 ---------------------------------------------------------------------

 SCF Done:  E(UPBE-PBE) = -0.497430908604     A.U. after    5 cycles

 The electronic state is 2-A1G.
 Alpha  occ. eigenvalues --   -0.27019
 Alpha virt. eigenvalues --    0.66460   1.87527   1.87527   1.87527
  Beta virt. eigenvalues --    0.00921   0.99527   2.22031   2.22031   2.22031

 Mulliken charges and spin densities:
               1          2
     1  H    0.000000   1.000000
 Sum of Mulliken charges =   0.00000   1.00000

 Dipole moment (field-independent basis, Debye):
    X=              0.0000    Y=              0.0000    Z=              0.0000  Tot=              0.0000
 Quadrupole moment (field-independent basis, Debye-Ang):
   XX=             -1.2787   YY=             -1.2787   ZZ=             -1.2787
   XY=              0.0000   XZ=              0.0000   YZ=              0.0000

 Normal termination of Gaussian 09 at Wed Sep 30 15:58:54 2020.
