 Gaussian 16, Revision C.01,
 Gaussian 16:  ES64L-G16RevC.01  3-Jul-2019

 --------------------------
 #PBEPBE/6-31+g** scf=tight
 --------------------------

 -----
 fubar
 -----
 Symbolic Z-matrix:
 Charge = -1 Multiplicity = 2

                         Standard orientation:
 ---------------------------------------------------------------------
 Center     Atomic      Atomic             Coordinates (Angstroms)
 Number     Number       Type             X           Y           Z
 ---------------------------------------------------------------------
      1          8           0        0.000000    0.000000    0.000000
 ---------------------------------------------------------------------

 SCF Done:  E(UPBE-PBE) =  -75.0434730341     A.U. after   11 cycles

 Unable to determine electronic state:  an orbital has unidentified symmetry.
 Alpha  occ. eigenvalues --  -18.46393  -0.47085   0.02124   0.08445   0.08445
 Alpha virt. eigenvalues --    0.31102   0.35882   0.37444   0.37444   1.33511
 Alpha virt. eigenvalues --    1.38037   1.38037   1.43170   2.02277   2.03723
 Alpha virt. eigenvalues --    2.03723   2.08337   2.08337   3.86529
  Beta  occ. eigenvalues --  -18.44218  -0.40901   0.10660   0.10660
  Beta virt. eigenvalues --    0.13304   0.32083   0.37954   0.37954   0.39209
  Beta virt. eigenvalues --    1.39678   1.39678   1.42356   1.46266   2.09439
  Beta virt. eigenvalues --    2.09439   2.10049   2.10049   2.11878   3.91375

 Mulliken charges and spin densities:
               1          2
     1  O   -1.000000   1.000000
 Sum of Mulliken charges =  -1.00000   1.00000

 Dipole moment (field-independent basis, Debye):
    X=              0.0000    Y=              0.0000    Z=              0.0000  Tot=              0.0000
 Quadrupole moment (field-independent basis, Debye-Ang):
   XX=             -9.7378   YY=             -7.5047   ZZ=             -9.7378
   XY=             -0.0000   XZ=              0.0000   YZ=              0.0000

 Normal termination of Gaussian 16 at Tue Aug  3 16:34:36 2021.
